
#(C) 2021 by FIZ Karlsruhe - Leibniz Institute for Information Infrastructure.  All rights reserved.
data_860-ICSD
_database_code_ICSD 860
_audit_creation_date 1980-01-01
_audit_update_record 2016-02-01
_chemical_name_common 'Cesium oxide (4/1)'
_chemical_formula_structural 'Cs4 O'
_chemical_formula_sum 'Cs4 O1'
_exptl_crystal_density_diffrn 2.54
_diffrn_ambient_temperature 243.
_citation_title 'Untersuchungen zum Aufbau von Tetracaesiumoxid'
loop_
_citation_id
_citation_journal_full
_citation_year
_citation_journal_volume
_citation_page_first
_citation_page_last
_citation_journal_id_ASTM
primary 'Zeitschrift fuer Anorganische und Allgemeine Chemie (1950) (DE)' 1976
423 203 211 ZAACAB
loop_
_citation_author_citation_id
_citation_author_name
primary 'Simon, A.'
primary 'Deiseroth, H.J.'
primary 'Westerbeck, E.'
primary 'Hillenkoetter, B.'
_cell_length_a 16.833(8)
_cell_length_b 20.569(16)
_cell_length_c 12.40(1)
_cell_angle_alpha 90.
_cell_angle_beta 90.
_cell_angle_gamma 90.
_cell_volume 4293.35
_cell_formula_units_Z 12
_space_group_name_H-M_alt 'P n a 21'
_space_group_IT_number 33
loop_
_space_group_symop_id
_space_group_symop_operation_xyz
1 'x+1/2, -y+1/2, z'
2 '-x+1/2, y+1/2, z+1/2'
3 '-x, -y, z+1/2'
4 'x, y, z'
loop_
_atom_type_symbol
_atom_type_oxidation_number
Cs0+ 0
Cs1+ 1
Cs0+ 0
Cs1+ 1
Cs0+ 0
Cs1+ 1
Cs0+ 0
Cs1+ 1
O2- -2
loop_
_atom_site_label
_atom_site_type_symbol
_atom_site_symmetry_multiplicity
_atom_site_Wyckoff_symbol
_atom_site_fract_x
_atom_site_fract_y
_atom_site_fract_z
_atom_site_B_iso_or_equiv
_atom_site_occupancy
Cs1 Cs0+ 4 a 0.1259(1) 0.2040(1) 0.07 . 1.
Cs2 Cs1+ 4 a 0.1379(2) 0.2369(1) 0.4129(4) . 1.
Cs3 Cs0+ 4 a 0.3312(1) 0.1322(1) 0.0789(4) . 1.
Cs4 Cs0+ 4 a 0.3574(2) 0.1321(2) 0.3831(4) . 1.
Cs5 Cs0+ 4 a 0.1743(1) 0.0637(1) 0.2523(4) . 1.
Cs6 Cs1+ 4 a 0.1986(2) 0.0864(2) -.2031(4) . 1.
Cs7 Cs1+ 4 a 0.3135(2) 0.3141(1) 0.2227(5) . 1.
Cs8 Cs1+ 4 a 0.4999(2) 0.0038(2) 0.2021(4) . 1.
Cs9 Cs0+ 4 a 0.0315(2) 0.0143(2) -.0014(4) . 1.
Cs10 Cs1+ 4 a 0.3255(3) -.0785(2) 0.3760(4) . 1.
Cs11 Cs0+ 4 a 0.2758(2) -.0424(1) 0.0480(4) . 1.
Cs12 Cs1+ 4 a 0.4246(2) 0.2719(2) 0.7291(5) . 1.
O1 O2- 4 a 0.171(1) 0.071(1) 0.019(2) . 1.
O2 O2- 4 a 0.343(1) 0.024(1) 0.234(3) . 1.
O3 O2- 4 a 0.239(1) 0.198(1) 0.260(1) . 1.
loop_
_atom_site_aniso_label
_atom_site_aniso_type_symbol
_atom_site_aniso_U_11
_atom_site_aniso_U_22
_atom_site_aniso_U_33
_atom_site_aniso_U_12
_atom_site_aniso_U_13
_atom_site_aniso_U_23
Cs1 Cs0+ 0.130(3) 0.103(3) 0.142(4) 0.019(3) -.027(4) 0.005(3)
Cs2 Cs1+ 0.160(5) 0.164(5) 0.156(5) 0.018(4) 0.045(4) -.061(4)
Cs3 Cs0+ 0.093(2) 0.107(2) 0.085(2) -.002(2) 0.014(2) 0.005(2)
Cs4 Cs0+ 0.138(4) 0.133(4) 0.099(3) 0.002(3) -.030(3) -.015(3)
Cs5 Cs0+ 0.101(3) 0.100(3) 0.093(3) -.015(2) 0.012(3) 0.003(2)
Cs6 Cs1+ 0.174(5) 0.211(6) 0.077(3) -.009(5) -.008(3) -.002(4)
Cs7 Cs1+ 0.181(5) 0.089(3) 0.191(6) -.035(3) -.003(5) -.014(4)
Cs8 Cs1+ 0.122(3) 0.212(5) 0.178(6) 0.062(4) -.005(4) -.011(5)
Cs9 Cs0+ 0.133(4) 0.167(5) 0.150(5) -.045(4) -.033(4) -.003(4)
Cs10 Cs1+ 0.263(8) 0.136(4) 0.187(6) 0.005(5) 0.041(6) 0.074(5)
Cs11 Cs0+ 0.187(6) 0.094(4) 0.137(4) 0.020(4) -.028(5) -.039(4)
Cs12 Cs1+ 0.201(4) 0.143(3) 0.146(2) -.011(3) -.003(3) -.009(3)
O1 O2- 0.16(4) 0.12(3) 0.06(2) -.01(3) -.03(3) 0.00(3)
O2 O2- 0.12(2) 0.10(2) 0.08(2) -.01(2) -.02(2) 0.03(2)
O3 O2- 0.07(2) 0.10(2) 0.09(3) -.01(1) 0.03(2) 0.00(2)
#End of TTdata_860-ICSD